VARIABLES="x""y"
ZONE I=9
        1.565153999999999934189531813900	        0.000018651743964919347852898096
        1.565153322267353264152234260109	        0.000578766729435414612088550701
        1.565142665226950668966310331598	        0.007084553269234356541461661294
        1.555173019818592461405160065624	        0.226991767460660964772500847175
        0.000000000000000000000000000000	        1.954155359868258834410426061368
       -1.555173019818592461405160065624	        0.226991767460660964772500847175
       -1.565142665226950668966310331598	        0.007084553269234356541461661294
       -1.565153322267353264152234260109	        0.000578766729435414612088550701
       -1.565153999999999934189531813900	        0.000018651743964919347852898096
