VARIABLES="x""y"
ZONE I=9
        1.547595000000000053930193644192	        0.000087049025966227092836538515
        1.547594156611755478181180478714	        0.001729440670706732831318763743
        1.547546073781145947734216861136	        0.015315828341632718723186457055
        1.528504050867351082843015319668	        0.314088140837225582302494331088
        0.000000000000000000000000000000	        1.945758877629780503326628604555
       -1.528504050867351082843015319668	        0.314088140837225582302494331088
       -1.547546073781145947734216861136	        0.015315828341632718723186457055
       -1.547594156611755478181180478714	        0.001729440670706732831318763743
       -1.547595000000000053930193644192	        0.000087049025966227092836538515
