VARIABLES="x""y"
ZONE I=7
        1.443718749524872446698964267853	        0.253556744025878688653108383733
        1.387182682668311350937528914073	        0.610681086580854404211038399808
        1.140855460576618574108920256549	        1.240484951801160251605438133993
       -0.000000000000000000000000000000	        2.063926886180406317095048507326
       -1.140855460576618574108920256549	        1.240484951801160251605438133993
       -1.387182682668311350937528914073	        0.610681086580854404211038399808
       -1.443718749524872446698964267853	        0.253556744025878688653108383733
