VARIABLES="x""y"
ZONE T="stable"
-1.049623606362420e-01 1.000000000000000e-12
-1.062986008866274e-01 8.025905589561800e-03
-1.079501982960005e-01 1.646117172454194e-02
-1.096611752918616e-01 2.365420837670380e-02
-1.114204599667112e-01 2.957598085022395e-02
-1.132157579940057e-01 3.421399044024940e-02
-1.150385404520178e-01 3.757963714772893e-02
-1.168740739414597e-01 3.968327464494743e-02
-1.187089203509978e-01 4.055355897818125e-02
-1.205315668920979e-01 4.022980421108887e-02
-1.223292186369719e-01 3.875743632595771e-02
-1.240795133820026e-01 3.620549367713165e-02
-1.257758089477840e-01 3.263549750916116e-02
-1.274000736274595e-01 2.813464926881820e-02
-1.289411924047738e-01 2.278603108710260e-02
-1.303796638989214e-01 1.671758100842562e-02
-1.317134973066202e-01 1.000003405179744e-02
-1.329256312132412e-01 2.787361891771972e-03
-1.340150326604931e-01 -4.834813797263838e-03
-1.349710525217222e-01 -1.269823343205201e-02
-1.357947421838303e-01 -2.069362289208163e-02
-1.364852997832035e-01 -2.865678522530987e-02
-1.370472165171389e-01 -3.650325309393133e-02
-1.374878245929260e-01 -4.407836660969421e-02
-1.378148200281171e-01 -5.124710232081316e-02
-1.380394512740687e-01 -5.788649385888366e-02
-1.381751550289977e-01 -6.390787892762646e-02
-1.382350814823689e-01 -6.919054975429755e-02
-1.382331851242858e-01 -7.367349169394201e-02
-1.381823762772106e-01 -7.725712098593694e-02
-1.380933378206995e-01 -7.991867407712254e-02
-1.379751010836122e-01 -8.159496324605307e-02
-1.378325847952241e-01 -8.226540045433411e-02
-1.376672612700038e-01 -8.192645346373303e-02
-1.374756411197472e-01 -8.058812726100922e-02
-1.372507708843884e-01 -7.828136886809541e-02
-1.369828566398142e-01 -7.507409864573339e-02
-1.366568499615815e-01 -7.103056383724295e-02
-1.362580982790564e-01 -6.626549918461794e-02
-1.357727989013817e-01 -6.092992849133903e-02
-1.351846905887976e-01 -5.515521533227273e-02
-1.344831777921777e-01 -4.912530674817131e-02
-1.336593166153835e-01 -4.301788418218117e-02
-1.327138086312340e-01 -3.703684458750008e-02
-1.316451211447243e-01 -3.139468358322317e-02
-1.304623930408491e-01 -2.624200198477662e-02
-1.291766640059610e-01 -2.175891662553767e-02
-1.278050105745619e-01 -1.809677068148616e-02
-1.263641531471636e-01 -1.537152074255766e-02
-1.248726381713022e-01 -1.367523325668874e-02
-1.233503882506994e-01 -1.307388523945667e-02
-1.218202865155112e-01 -1.360283900153356e-02
-1.202938509211669e-01 -1.527492668967798e-02
-1.187943868771119e-01 -1.807160144370300e-02
-1.173326687562476e-01 -2.195218586149030e-02
-1.159242483038036e-01 -2.689372328498541e-02
-1.145774725651333e-01 -3.279316395899071e-02
-1.133011293239370e-01 -3.958346147309696e-02
-1.121025833280200e-01 -4.716856749935715e-02
-1.109871601081870e-01 -5.544292964465663e-02
-1.099516468108588e-01 -6.435581720453275e-02
-1.090010717556194e-01 -7.378133494237651e-02
-1.081376803257907e-01 -8.358179242919037e-02
-1.073567084420382e-01 -9.375301579867194e-02
-1.066577842178784e-01 -1.041312186009075e-01
-1.060372574974684e-01 -1.146649385746378e-01
-1.054922958760201e-01 -1.252699833366687e-01
-1.050182788483680e-01 -1.358926094912387e-01
-1.046129320524004e-01 -1.464317523409888e-01
-1.042724488051340e-01 -1.568313538177095e-01
-1.039887983302987e-01 -1.671186073272201e-01
-1.037610981225769e-01 -1.771515341768555e-01
-1.035835564828639e-01 -1.869430984138597e-01
-1.034520303791130e-01 -1.964565005278465e-01
-1.033620625589843e-01 -2.056662860225341e-01
-1.033098816023081e-01 -2.145503851572339e-01
-1.032911992862943e-01 -2.230877666205432e-01
-1.033022037754827e-01 -2.312713999001368e-01
-1.033391047061646e-01 -2.390783965415608e-01
-1.033985543854864e-01 -2.465355104216938e-01
-1.034769313231262e-01 -2.536047076435550e-01
-1.035714068365060e-01 -2.603206820797865e-01
-1.036786823818295e-01 -2.666563818925363e-01
-1.037963934460470e-01 -2.726414355288193e-01
-1.039213142599837e-01 -2.782498295074047e-01
-1.040515148900530e-01 -2.835114568648170e-01
-1.041849202128418e-01 -2.884373861875731e-01
-1.043189589426943e-01 -2.930161762192083e-01
-1.044518311183972e-01 -2.972550964881372e-01
-1.045818341019986e-01 -3.011792791971384e-01
-1.047076699695686e-01 -3.047892168296843e-01
-1.048277229492902e-01 -3.080921858209313e-01
-1.049388914880679e-01 -3.110494994434299e-01
-1.050437316473810e-01 -3.137640464727769e-01
-1.051392590610827e-01 -3.161910258072502e-01
-1.052240889983839e-01 -3.183249176668565e-01
-1.052977878399933e-01 -3.201804430506668e-01
-1.053592523702705e-01 -3.217534346499221e-01
-1.054091144013571e-01 -3.230744887765656e-01
-1.054458975555005e-01 -3.241233375041662e-01
-1.054695444670911e-01 -3.249106097168462e-01
-1.054795395911557e-01 -3.254317945696306e-01
-1.054759010212884e-01 -3.256914298659085e-01
-1.054585430188261e-01 -3.256902350034421e-01
-1.054275190111279e-01 -3.254271475294651e-01
-1.053828716316069e-01 -3.248997760187708e-01
-1.053247872516689e-01 -3.241049118497496e-01
-1.052537977087707e-01 -3.230423757633576e-01
-1.051701478451990e-01 -3.217056678226219e-01
-1.050741643529340e-01 -3.200863971483098e-01
-1.049671004522657e-01 -3.181895847126510e-01
-1.048491469270844e-01 -3.159992934047067e-01
-1.047210652926484e-01 -3.135059347833948e-01
-1.045845959517584e-01 -3.107166673974683e-01
-1.044404681046342e-01 -3.076160337972862e-01
-1.042898342782397e-01 -3.041762426221389e-01
-1.041341636256194e-01 -3.004348426244393e-01
-1.039752917184943e-01 -2.963553683754511e-01
-1.038148193653372e-01 -2.919276253996591e-01
-1.036545332123067e-01 -2.871459350086956e-01
-1.034967373598589e-01 -2.820106176524889e-01
-1.033431574304930e-01 -2.764978305901238e-01
-1.031970487807903e-01 -2.706341592987359e-01
-1.030601869619257e-01 -2.643690209769030e-01
-1.029356966406971e-01 -2.577656035768915e-01
-1.028262578116858e-01 -2.507705315192815e-01
-1.027353132111339e-01 -2.434362199700419e-01
-1.026652381329490e-01 -2.357115655381636e-01
-1.026196170664460e-01 -2.276382558258075e-01
-1.026016563673686e-01 -2.192247377966845e-01
-1.026146121328140e-01 -2.104987390022703e-01
-1.026617781784862e-01 -2.014639707122041e-01
-1.027463058474583e-01 -1.921622788728848e-01
-1.028715888158211e-01 -1.826011020522284e-01
-1.030397898330793e-01 -1.728686589170770e-01
-1.032547513279294e-01 -1.629402885274894e-01
-1.035167119222200e-01 -1.529534284410336e-01
-1.038302456798061e-01 -1.428509619339269e-01
-1.041948483877725e-01 -1.327754602597086e-01
-1.046126435951647e-01 -1.227365007226865e-01
-1.050843859601867e-01 -1.127880109391217e-01
-1.056038469397119e-01 -1.030912042407073e-01
-1.061771240776447e-01 -9.358404918993578e-02
-1.068027348521862e-01 -8.433032701816620e-02
-1.074674749349072e-01 -7.548965957122566e-02
-1.081764297431428e-01 -6.706076616767337e-02
-1.089228210623187e-01 -5.906684393625575e-02
-1.097002936118266e-01 -5.156043645788599e-02
-1.104999509446247e-01 -4.459431537588328e-02
-1.113174418775512e-01 -3.816162556075103e-02
-1.121424003452937e-01 -3.229120430156204e-02
-1.129664027751861e-01 -2.698007006278321e-02
-1.137821154841418e-01 -2.220774779534650e-02
-1.145786762419529e-01 -1.796449362211662e-02
-1.153474409875925e-01 -1.421804347145408e-02
-1.160781942091662e-01 -1.093711058115962e-02
-1.167672374822442e-01 -8.058236116540945e-03
-1.174010196152530e-01 -5.558396947784761e-03
-1.179770072176216e-01 -3.369855095592098e-03
-1.184858952652540e-01 -1.454990527222702e-03
-1.189247593306620e-01 2.427837255108889e-04
-1.192878925379337e-01 1.762076459503109e-03
-1.195718417689495e-01 3.140358520838524e-03
-1.197748154128876e-01 4.412240757204435e-03
-1.198947819803407e-01 5.599728083180862e-03
-1.199307218892092e-01 6.718865613033012e-03
-1.198823457250513e-01 7.771375353678439e-03
-1.197500097416363e-01 8.758349867366361e-03
-1.195348573745625e-01 9.666972220155350e-03
-1.192390112771586e-01 1.047793336528720e-02
-1.188642297885348e-01 1.116761100511646e-02
-1.184128249905506e-01 1.170226617939606e-02
-1.178903693392849e-01 1.204772662291533e-02
-1.173002969002669e-01 1.216529277034165e-02
-1.166462612178728e-01 1.201395926343767e-02
-1.159359409025996e-01 1.155314668556964e-02
-1.151731703773373e-01 1.074129882651275e-02
-1.143549194694362e-01 9.512791868529109e-03
-1.135023609994332e-01 7.865995609027071e-03
-1.126213540708846e-01 5.773238333357362e-03
-1.116989918974469e-01 3.126812841371600e-03
-1.107644802166473e-01 -1.621446231759974e-05
-1.098135984735672e-01 -3.717872366350129e-03
-1.088529582735037e-01 -7.998602484860739e-03
-1.078939043800826e-01 -1.284720880549860e-02
-1.069360814331597e-01 -1.830320287713673e-02
-1.059874228358553e-01 -2.436001169130266e-02
-1.050564719381686e-01 -3.099275275292391e-02
-1.041451394236879e-01 -3.821341469137766e-02
-1.032569926336164e-01 -4.602023882934444e-02
-1.023986440397071e-01 -5.437579921982906e-02
-1.015731916664148e-01 -6.326384158691073e-02
-1.007836595476163e-01 -7.266238646523601e-02
-1.000334277922989e-01 -8.253796931215482e-02
-9.932481937954132e-02 -9.285956756686281e-02
-9.866006056626808e-02 -1.035901863269811e-01
-9.804003084234630e-02 -1.147079329212352e-01
-9.746788113307356e-02 -1.261409145098623e-01
-9.694441640453509e-02 -1.378884199092677e-01
-9.646840798364850e-02 -1.499057928137258e-01
-9.604336061813973e-02 -1.620961948203372e-01
-9.566744549102438e-02 -1.744733351757991e-01
-9.534178483190632e-02 -1.869593459520907e-01
-9.506441447013199e-02 -1.996148044154689e-01
-9.483748514200792e-02 -2.122580136880133e-01
-9.465915217761135e-02 -2.249251364474198e-01
-9.452922546964196e-02 -2.375413759743064e-01
-9.444654747022510e-02 -2.500912427141981e-01
-9.441017991613168e-02 -2.625655335122874e-01
-9.441927537949227e-02 -2.749306012455950e-01
-9.447277788682261e-02 -2.871194718469575e-01
-9.456920251681696e-02 -2.990939031450690e-01
-9.470799636250438e-02 -3.109014365812430e-01
-9.488713845408060e-02 -3.224476431728476e-01
-9.510602105850552e-02 -3.337541418563805e-01
-9.536220421578852e-02 -3.447665956965483e-01
-9.565538370910538e-02 -3.555021375627408e-01
-9.598361751735084e-02 -3.659289553584369e-01
-9.634634510303051e-02 -3.760562765090510e-01
-9.674059585093826e-02 -3.858356034813152e-01
-9.716605023046672e-02 -3.952768137988682e-01
-9.762025867787431e-02 -4.043860345869217e-01
-9.810500810711613e-02 -4.131786685228876e-01
-9.860704817818615e-02 -4.214709226260401e-01
-9.914615877596566e-02 -4.295986436234978e-01
-9.970887701904858e-02 -4.373456981685144e-01
-1.002929831553955e-01 -4.447654248912914e-01
-1.008984236498049e-01 -4.518112909817589e-01
-1.015232470313230e-01 -4.585038415188908e-01
-1.021667336540958e-01 -4.648532987971969e-01
-1.028294255384801e-01 -4.708849437399529e-01
-1.035068423804579e-01 -4.765710283489626e-01
-1.042015241662770e-01 -4.819504985370998e-01
-1.049102162906995e-01 -4.870124312823594e-01
-1.056307693464616e-01 -4.917567263028166e-01
-1.063637753979899e-01 -4.961870012339208e-01
-1.071036733581986e-01 -5.003426939863723e-01
-1.078574119640434e-01 -5.042181110529496e-01
-1.086209274969924e-01 -5.078227314813325e-01
-1.093927156629968e-01 -5.111537422200729e-01
-1.101692129792520e-01 -5.142173636896894e-01
-1.109512913908958e-01 -5.170586715384360e-01
-1.117354684176113e-01 -5.196343099167587e-01
-1.125357578753503e-01 -5.220152251342208e-01
-1.133318759933824e-01 -5.241462068045543e-01
-1.141313606609531e-01 -5.260760931231677e-01
-1.149307689827443e-01 -5.277929024963829e-01
-1.157329966150495e-01 -5.293180613080988e-01
-1.165352231013957e-01 -5.306555698533508e-01
-1.173371920492843e-01 -5.318138611815720e-01
-1.181381393117535e-01 -5.327900862096639e-01
-1.189380421704718e-01 -5.336301656567285e-01
-1.197358983737376e-01 -5.343024966927591e-01
-1.205312309693102e-01 -5.348279130863579e-01
-1.213216260230483e-01 -5.352125622087827e-01
-1.221100780720531e-01 -5.354566468084793e-01
-1.228931802045578e-01 -5.355947317480646e-01
-1.236720204539900e-01 -5.356044601253998e-01
-1.244472227945110e-01 -5.355019773932245e-01
-1.252153228004562e-01 -5.352941036217239e-01
-1.259768154218983e-01 -5.349871204170329e-01
-1.267333369278159e-01 -5.345860843328542e-01
-1.274776437150830e-01 -5.341006247642913e-01
-1.282182004383345e-01 -5.335315451662660e-01
-1.289604334211318e-01 -5.328787646558274e-01
-1.296812228583869e-01 -5.321654503610379e-01
-1.304059062057181e-01 -5.313705641314346e-01
-1.311164418972227e-01 -5.305273774535435e-01
-1.318193808845005e-01 -5.296217227130224e-01
-1.325129043162863e-01 -5.286640810834859e-01
-1.331982010345197e-01 -5.276567610735268e-01
-1.338730536740773e-01 -5.266068823324382e-01
-1.345402547687930e-01 -5.255136824854765e-01
-1.351956352786395e-01 -5.243875427314072e-01
-1.358440632208580e-01 -5.232235851574899e-01
-1.364815414537099e-01 -5.220212198524519e-01
-1.371085190851586e-01 -5.208140174570547e-01
-1.377259734193792e-01 -5.195722566239164e-01
-1.383330555601147e-01 -5.183106130504880e-01
-1.389304425423613e-01 -5.170303448196442e-01
-1.395153781597183e-01 -5.157400921292458e-01
-1.400914932334798e-01 -5.144343739296305e-01
-1.406574611998330e-01 -5.131184363718064e-01
-1.412118521833682e-01 -5.117981093122703e-01
-1.417559647353512e-01 -5.104713809433686e-01
-1.422897709997155e-01 -5.091390322357890e-01
-1.428126332572788e-01 -5.078032984100361e-01
-1.433229053562078e-01 -5.064908816329770e-01
-1.438229849385406e-01 -5.051706192967867e-01
-1.443115490422201e-01 -5.038579156566070e-01
-1.447892323186616e-01 -5.025528291377583e-01
-1.452619632561264e-01 -5.012419145898087e-01
-1.457201348349749e-01 -4.999507974564952e-01
-1.461658767867298e-01 -4.986764329792936e-01
-1.466014037777817e-01 -4.974140179379451e-01
-1.470260904315291e-01 -4.961667407750349e-01
-1.474399036972033e-01 -4.949361763912022e-01
-1.478421824660252e-01 -4.937238701272256e-01
-1.482339197046254e-01 -4.925284113492125e-01
-1.486150053050179e-01 -4.913507502154510e-01
-1.489706232089811e-01 -4.902542369779229e-01
-1.493316144554620e-01 -4.891208213649577e-01
-1.496818968881643e-01 -4.880105111104263e-01
-1.500207294457734e-01 -4.869267154486839e-01
-1.503493929666010e-01 -4.858663319725931e-01
-1.506664151972493e-01 -4.848350746860006e-01
-1.509731915858201e-01 -4.838293318251499e-01
-1.512683992471563e-01 -4.828543266099756e-01
-1.515536860984486e-01 -4.819054557934486e-01
-1.518275464103927e-01 -4.809885254144506e-01
-1.520906371104940e-01 -4.801021273776306e-01
-1.523434646018924e-01 -4.792452767253521e-01
-1.525855627588971e-01 -4.784202393419321e-01
-1.528165260145528e-01 -4.776290770069753e-01
-1.530375190329402e-01 -4.768684263962322e-01
-1.532477074978555e-01 -4.761417989461831e-01
-1.534474333693656e-01 -4.754485959866641e-01
-1.536326478940489e-01 -4.748035939310033e-01
-1.538117103163654e-01 -4.741777288564501e-01
-1.539806254215059e-01 -4.735855237942682e-01
-1.541388454322976e-01 -4.730293217248515e-01
-1.542870419413042e-01 -4.725071691090622e-01
-1.544245511030092e-01 -4.720217931854375e-01
-1.545514524889007e-01 -4.715732761425262e-01
-1.546682316618592e-01 -4.711602625171675e-01
-1.547746235574966e-01 -4.707839857972928e-01
-1.548706801037804e-01 -4.704445938991355e-01
-1.549565420950702e-01 -4.701418604719702e-01
-1.550322297009517e-01 -4.698758645657009e-01
-1.550971206621225e-01 -4.696491927191590e-01
-1.551519227496620e-01 -4.694594134638181e-01
-1.551964113895374e-01 -4.693075083607214e-01
-1.552305917251948e-01 -4.691935640231165e-01
-1.552545397102678e-01 -4.691174613133740e-01
-1.552682460702170e-01 -4.690792830929768e-01
-1.552716422751147e-01 -4.690792496627124e-01
-1.552647521958878e-01 -4.691174404123791e-01
-1.552475792044552e-01 -4.691936334357367e-01
-1.552200769236620e-01 -4.693080376031148e-01
-1.551823620444543e-01 -4.694601038280430e-01
-1.551341644087126e-01 -4.696507745658712e-01
-1.550757325526422e-01 -4.698789191127586e-01
-1.550068886327025e-01 -4.701450216042456e-01
-1.549276779285634e-01 -4.704487016175715e-01
-1.548380810784897e-01 -4.707898420465763e-01
-1.547379182546292e-01 -4.711687964589305e-01
-1.546274753221931e-01 -4.715842115662653e-01
-1.545067608949190e-01 -4.720357462451272e-01
-1.543750185653933e-01 -4.725258970110018e-01
-1.542331443750653e-01 -4.730509157004496e-01
-1.540803079381536e-01 -4.736135234528576e-01
-1.539171451610970e-01 -4.742109537477583e-01
-1.537433717442299e-01 -4.748438307100355e-01
-1.535587925989219e-01 -4.755124193844737e-01
-1.533636221820459e-01 -4.762154801265833e-01
-1.531576256118875e-01 -4.769533928054084e-01
-1.529407969692572e-01 -4.777256156888932e-01
-1.527131630523454e-01 -4.785313808949774e-01
-1.524749999804677e-01 -4.793690850089666e-01
-1.522252518350093e-01 -4.802417577661366e-01
-1.519654666502215e-01 -4.811432905660328e-01
-1.516945549222674e-01 -4.820767487755424e-01
-1.514119222133585e-01 -4.830433685703943e-01
-1.511184621328870e-01 -4.840392568840560e-01
-1.508145340237318e-01 -4.850623715695295e-01
-1.504983412150759e-01 -4.861178424234020e-01
-1.501724498071543e-01 -4.871961805626028e-01
-1.498344527874262e-01 -4.883043953925831e-01
-1.494853441160380e-01 -4.894381690414349e-01
-1.491250528807558e-01 -4.905966730053966e-01
-1.487536884100180e-01 -4.917694645243893e-01
-1.483704303225493e-01 -4.929807791079211e-01
-1.479765510543182e-01 -4.942096340082450e-01
-1.475705386838471e-01 -4.954599072467776e-01
-1.471540207995578e-01 -4.967254387602354e-01
-1.467256802913252e-01 -4.980102825603777e-01
-1.462803083594556e-01 -4.993265346948695e-01
-1.458303901118528e-01 -5.006397136260963e-01
-1.453685154820594e-01 -5.019680215988236e-01
-1.448958596933438e-01 -5.033064902020121e-01
-1.444119105997386e-01 -5.046549529732669e-01
-1.439164376423810e-01 -5.060125160816248e-01
-1.434081370092671e-01 -5.073803429845010e-01
-1.428896382771304e-01 -5.087413363037957e-01
-1.423590867839535e-01 -5.101212011501999e-01
-1.418172701825915e-01 -5.114981536542779e-01
-1.412644355112166e-01 -5.128707298557595e-01
-1.407014815598099e-01 -5.142360059601657e-01
-1.401256586582722e-01 -5.155991646642504e-01
-1.395395353527414e-01 -5.169513784081833e-01
-1.389421959120321e-01 -5.182922858619555e-01
-1.383355667402091e-01 -5.196150678928640e-01
-1.377179101805600e-01 -5.209209133222960e-01
-1.370888906685382e-01 -5.222075892655593e-01
-1.364499240203690e-01 -5.234627241507808e-01
-1.358011596449643e-01 -5.247016705505558e-01
-1.351422492700012e-01 -5.259050817819211e-01
-1.344726275695914e-01 -5.270744379868513e-01
-1.337939310023743e-01 -5.282042735217860e-01
-1.331066291806546e-01 -5.292903930777570e-01
-1.324084291972194e-01 -5.303325706570374e-01
-1.316953137313668e-01 -5.313303918874351e-01
-1.309866791197162e-01 -5.322476386334239e-01
-1.302628882203353e-01 -5.331321033061770e-01
-1.295306068611748e-01 -5.339443137515013e-01
-1.287926449998561e-01 -5.346840003280986e-01
-1.280452673504765e-01 -5.353509687090993e-01
-1.272924248016270e-01 -5.359367211758032e-01
-1.265311865795009e-01 -5.364273710484548e-01
-1.257652457681517e-01 -5.368483649881862e-01
-1.249911943906439e-01 -5.371624264753143e-01
-1.242130721969714e-01 -5.373733421978908e-01
-1.234299756627547e-01 -5.374755277626379e-01
-1.226412882004845e-01 -5.374626030078715e-01
-1.218495155293535e-01 -5.373247049293600e-01
-1.210533595340003e-01 -5.370652132288891e-01
-1.202550435302607e-01 -5.366673063575033e-01
-1.194545311131631e-01 -5.361277558448551e-01
-1.186506874765440e-01 -5.354378166884217e-01
-1.178465531533307e-01 -5.345877738572598e-01
-1.170427109358448e-01 -5.335839651827872e-01
-1.162384030184810e-01 -5.324037884087799e-01
-1.154339911429470e-01 -5.310433935646748e-01
-1.146269575360679e-01 -5.294876846472805e-01
-1.138338704463561e-01 -5.277485944961297e-01
-1.130367997239436e-01 -5.258202202256210e-01
-1.122394072418316e-01 -5.236582493206955e-01
-1.114537043097894e-01 -5.212978713347982e-01
-1.106737509425428e-01 -5.187152770169904e-01
-1.098971771260035e-01 -5.158840070509881e-01
-1.091290137072604e-01 -5.128302493450457e-01
-1.083676252572466e-01 -5.095220672484942e-01
-1.076148654047969e-01 -5.059556387653399e-01
-1.068739153283126e-01 -5.021381624405195e-01
-1.061431786338427e-01 -4.980409851956312e-01
-1.054243120088241e-01 -4.936909027330124e-01
-1.047172752785966e-01 -4.890462467710158e-01
-1.040250307202303e-01 -4.841240397036983e-01
-1.033468234924797e-01 -4.789074409427416e-01
-1.026854525751244e-01 -4.734062767749935e-01
-1.020405297583237e-01 -4.676055082492695e-01
-1.014134665929987e-01 -4.615068045100888e-01
-1.008053669267637e-01 -4.551076443664107e-01
-1.002162657620675e-01 -4.483957279734490e-01
-9.965027014340196e-02 -4.413862820656209e-01
-9.910453607381881e-02 -4.340948717387056e-01
-9.857913517555804e-02 -4.264483007639382e-01
-9.808200558185270e-02 -4.185608028488714e-01
-9.760746567901157e-02 -4.103430392468149e-01
-9.716142360917362e-02 -4.018627183633569e-01
-9.674208895022447e-02 -3.931315645930698e-01
-9.635029848375055e-02 -3.841079441290285e-01
-9.598721052995392e-02 -3.748205323387460e-01
-9.565109093813877e-02 -3.651981076432399e-01
-9.534760052120557e-02 -3.553834364856607e-01
-9.507591084732116e-02 -3.453352601282398e-01
-9.483622087861898e-02 -3.350907762051424e-01
-9.463001849444154e-02 -3.246570148749092e-01
-9.445697733684781e-02 -3.140060721901341e-01
-9.431889103991956e-02 -3.032295221238707e-01
-9.421700388185392e-02 -2.924973123565256e-01
-9.414855730160816e-02 -2.814458351850076e-01
-9.411614986781436e-02 -2.702965438990230e-01
-9.411990818165046e-02 -2.591125311923079e-01
-9.416027512987693e-02 -2.478533736245452e-01
-9.423863850357950e-02 -2.364345453084959e-01
-9.435296838719275e-02 -2.251657672916789e-01
-9.450485936113497e-02 -2.138765775599530e-01
-9.469129170589710e-02 -2.027518432232860e-01
-9.491505563157399e-02 -1.916796760849638e-01
-9.517533231575817e-02 -1.807002821575864e-01
-9.547406216488658e-02 -1.697396688379864e-01
-9.580605190800080e-02 -1.590352233399207e-01
-9.617286237967836e-02 -1.485092835346125e-01
-9.657426563269890e-02 -1.381742458801903e-01
-9.700865185037556e-02 -1.280581150965705e-01
-9.747671202124965e-02 -1.181880443746771e-01
-9.797487768354227e-02 -1.086092253206917e-01
-9.850241083199045e-02 -9.932941343107955e-02
-9.905839373291420e-02 -9.035637412501672e-02
-9.964265331558697e-02 -8.169032234260620e-02
-1.002533362360155e-01 -7.335327606531705e-02
-1.008859420751249e-01 -6.539416101050441e-02
-1.015390779339436e-01 -5.781328074207094e-02
-1.022147242495013e-01 -5.057554956238850e-02
-1.029086240786532e-01 -4.371517464641186e-02
-1.036160518874008e-01 -3.726019392757129e-02
-1.043400638435454e-01 -3.116592710541927e-02
-1.050739078919265e-01 -2.547224648702395e-02
-1.058154321757827e-01 -2.017374026193423e-02
-1.065666867923375e-01 -1.523710905672657e-02
-1.073215089802062e-01 -1.068396091496778e-02
-1.080799589630272e-01 -6.493195775944056e-03
-1.088377011481107e-01 -2.667938809267747e-03
-1.095948018540640e-01 8.131082334452324e-04
-1.103470832212463e-01 3.951620833358708e-03
-1.110929736907876e-01 6.762888670393826e-03
-1.118318248708335e-01 9.265080775967214e-03
-1.125602514101185e-01 1.146725410667015e-02
-1.132781767973864e-01 1.338935638579496e-02
-1.139811391865067e-01 1.503982270871652e-02
-1.146712467578206e-01 1.644318450628429e-02
-1.153447594940114e-01 1.761035709302796e-02
-1.160012475789274e-01 1.855933585184900e-02
-1.166407383816767e-01 1.930754204658817e-02
-1.172592475436720e-01 1.986791576930450e-02
-1.178596697714932e-01 2.025983599959169e-02
-1.184395475112613e-01 2.049713603915865e-02
-1.189993024796712e-01 2.059516514176937e-02
-1.195372920418536e-01 2.056831134122776e-02
-1.200548878249557e-01 2.043045273073817e-02
-1.205517175709511e-01 2.019459003648644e-02
-1.210271019849867e-01 1.987364421410496e-02
-1.214827742999372e-01 1.947817192142666e-02
-1.219181309669585e-01 1.901961729396585e-02
-1.223332877851388e-01 1.850849333401848e-02
-1.227296222857660e-01 1.795296582981989e-02
-1.231071767735952e-01 1.736214973949594e-02
-1.234670827246291e-01 1.674288237817219e-02
-1.238095492475853e-01 1.610284627480490e-02
-1.241359711706085e-01 1.544689836702255e-02
-1.244458566316604e-01 1.478308564273685e-02
-1.247415033107786e-01 1.411298901138585e-02
-1.250228216916518e-01 1.344271264932682e-02
-1.252903237053559e-01 1.277667834060862e-02
-1.255455332262504e-01 1.211621118724864e-02
-1.257890985017956e-01 1.146424474492269e-02
-1.260216769923075e-01 1.082327149042402e-02
-1.262437327702802e-01 1.019593259516246e-02
-1.264559986476925e-01 9.583741795106486e-03
-1.266595435048378e-01 9.002562460662935e-03
-1.268540375857111e-01 8.422780393230050e-03
-1.270408033265930e-01 7.861180696251613e-03
-1.272202113715868e-01 7.318991372927264e-03
-1.273925782901427e-01 6.797314467757844e-03
-1.275581280382966e-01 6.297485135936825e-03
-1.277175346039918e-01 5.819116778591969e-03
-1.278705668599579e-01 5.364416199466118e-03
-1.280179571633365e-01 4.932718029630322e-03
-1.281593629448297e-01 4.526276381961502e-03
-1.282954298482773e-01 4.140182269999907e-03
-1.284254032431248e-01 3.786856910635821e-03
-1.285497766263013e-01 3.461247667843368e-03
-1.286682286869725e-01 3.165388617400489e-03
-1.287807076790398e-01 2.900624096878431e-03
-1.288866636379762e-01 2.669470928272044e-03
-1.289861682067822e-01 2.473088936044114e-03
-1.290788288117817e-01 2.313785344662512e-03
-1.291639738755646e-01 2.194272381272760e-03
-1.292415285931752e-01 2.116461533946215e-03
-1.293106763259758e-01 2.083251110342367e-03
-1.293709972498656e-01 2.097104685890020e-03
-1.294219951975186e-01 2.160848412524966e-03
-1.294628664767836e-01 2.277016732540641e-03
-1.294930540383709e-01 2.448547271819884e-03
-1.295118134774009e-01 2.678043802842806e-03
-1.295183930507202e-01 2.967938797993583e-03
-1.295112339132454e-01 3.325668724491028e-03
-1.294908148425995e-01 3.744938779099766e-03
-1.294557491270627e-01 4.231268362731290e-03
-1.294051749564690e-01 4.786083593593477e-03
-1.293380921649329e-01 5.411487179401349e-03
-1.292537602508996e-01 6.106472149888523e-03
-1.291510246208832e-01 6.872922100530227e-03
-1.290289556965098e-01 7.709960079319983e-03
-1.288869568381916e-01 8.613999161910305e-03
-1.287236575777506e-01 9.585733638170705e-03
-1.285383335486117e-01 1.062093107774461e-02
-1.283301220912335e-01 1.171554059787051e-02
-1.280975869576415e-01 1.286752005099434e-02
-1.278407412015359e-01 1.406684176951226e-02
-1.275575518775969e-01 1.531233094907085e-02
-1.272481643082500e-01 1.659198535590735e-02
-1.269115716006857e-01 1.789830218557413e-02
-1.265480646119379e-01 1.921809906048155e-02
-1.261557146732883e-01 2.054559196615837e-02
-1.257341834272986e-01 2.186811216315836e-02
-1.252838130292270e-01 2.317052801762418e-02
-1.248028769985804e-01 2.444288758551062e-02
-1.242752779307896e-01 2.570067512229132e-02
-1.237336498918925e-01 2.685926076018296e-02
-1.231611302154088e-01 2.793902652528349e-02
-1.225606658716501e-01 2.891750483398759e-02
-1.219318947832654e-01 2.977857619371669e-02
-1.212896695835138e-01 3.049275811784458e-02
-1.206081646755594e-01 3.106627974018713e-02
-1.198996591493788e-01 3.146751674854246e-02
-1.191440277215460e-01 3.167536287897211e-02
-1.183854514126778e-01 3.166417235242093e-02
-1.176044615900819e-01 3.141944073210004e-02
-1.168031745580111e-01 3.092161424928904e-02
-1.159834272037931e-01 3.015153975133278e-02
-1.151465192697067e-01 2.908958590310550e-02
-1.142969581543814e-01 2.772132523037191e-02
-1.134344106910406e-01 2.602591736596864e-02
-1.125612195233818e-01 2.398628572863710e-02
-1.116805082079617e-01 2.158846151213080e-02
-1.107921929553412e-01 1.880992044672017e-02
-1.099050175391288e-01 1.565819712497889e-02
-1.090148663627492e-01 1.209888556587987e-02
-1.081280086994363e-01 8.135765510037800e-03
-1.072455665200290e-01 3.754611965521853e-03
-1.063711467813356e-01 -1.045474457872674e-03
-1.055057988310176e-01 -6.277092730812231e-03
-1.046502223360967e-01 -1.195634187805630e-02
-1.038119630157869e-01 -1.804951737598560e-02
-1.029902735275154e-01 -2.457529924792791e-02
-1.021846181280484e-01 -3.155594058177411e-02
-1.014021616249649e-01 -3.894377892824836e-02
-1.006415704292521e-01 -4.676268903703969e-02
-9.990584061940032e-02 -5.499455781694330e-02
-9.919596079693313e-02 -6.363950533589481e-02
-9.851504281005900e-02 -7.266853273035731e-02
-9.786428920648338e-02 -8.207137731960727e-02
-9.724441358307367e-02 -9.184383696505796e-02
-9.665625362311804e-02 -1.019801838714999e-01
-9.610387772378187e-02 -1.124111147035347e-01
-9.558601008791878e-02 -1.231588449416050e-01
-9.510358993295427e-02 -1.342072703446961e-01
-9.465864673542898e-02 -1.455086567706170e-01
-9.425172107349680e-02 -1.570455199571014e-01
-9.388274530788325e-02 -1.688153462214282e-01
-9.355400915324777e-02 -1.807355410987590e-01
-9.326437994955510e-02 -1.928353022747130e-01
-9.301477138057283e-02 -2.051061108214825e-01
-9.280631505676715e-02 -2.174378635115833e-01
-9.263824636018089e-02 -2.298797864091322e-01
-9.251167031330512e-02 -2.423347266342325e-01
-9.242602200100092e-02 -2.548355856526544e-01
-9.238161598641993e-02 -2.673391955881135e-01
-9.237848779277207e-02 -2.797947858896621e-01
-9.241654850608308e-02 -2.921897901076296e-01
-9.249549980707972e-02 -3.045042518378512e-01
-9.261526517585736e-02 -3.167022419164966e-01
-9.277583827681189e-02 -3.287829199999421e-01
-9.297677896836798e-02 -3.407035865000152e-01
-9.321749113775599e-02 -3.524304103844361e-01
-9.349791475835270e-02 -3.639591958411995e-01
-9.381786428548465e-02 -3.752720223566007e-01
-9.417536644319444e-02 -3.862880462787280e-01
-9.457172879084157e-02 -3.971085773299380e-01
-9.500625074213155e-02 -4.076397359470696e-01
-9.547648566042082e-02 -4.178475133236256e-01
-9.598420182402807e-02 -4.277663068570528e-01
-9.652882383520589e-02 -4.373919603406265e-01
-9.710955289484102e-02 -4.466862799475182e-01
-9.772388216253526e-02 -4.556281796227200e-01
-9.837294307422477e-02 -4.642307950992507e-01
-9.905424094425591e-02 -4.724597403915588e-01
-9.976894543039357e-02 -4.803448505265636e-01
-1.005129624204569e-01 -4.878344035731318e-01
-1.012906084007204e-01 -4.949799339258602e-01
-1.020967809576203e-01 -5.017378034038612e-01
-1.029330737015143e-01 -5.081149388190783e-01